/*--------------------------------*- C++ -*----------------------------------*\
| =========                 |                                                 |
| \\      /  F ield         | OpenFOAM: The Open Source CFD Toolbox           |
|  \\    /   O peration     | Version:  2406                                  |
|   \\  /    A nd           | Website:  www.openfoam.com                      |
|    \\/     M anipulation  |                                                 |
\*---------------------------------------------------------------------------*/
FoamFile
{
    version     2.0;
    format      ascii;
    arch        "LSB;label=32;scalar=64";
    class       volVectorField;
    location    "0";
    object      vorticity;
}
// * * * * * * * * * * * * * * * * * * * * * * * * * * * * * * * * * * * * * //

dimensions      [0 0 -1 0 0 0 0];

internalField   nonuniform List<vector> 
64
(
(0 10.5467940250423 -10.5467923646859)
(0 4.72087662946996 -4.72087553382031)
(0 4.72087662946996 -4.72087553382031)
(0 10.5467940250423 -10.5467923646859)
(0 4.71052354874368 -1.16338682317527)
(0 1.92473799368774 -0.384319688172933)
(0 1.92473799368774 -0.384319688172934)
(0 4.71052354874368 -1.16338682317527)
(0 4.71052354874367 1.16338682317527)
(0 1.92473799368774 0.384319688172933)
(0 1.92473799368774 0.384319688172934)
(0 4.71052354874368 1.16338682317527)
(0 10.5467940250423 10.5467923646858)
(0 4.72087662946995 4.72087553382031)
(0 4.72087662946995 4.7208755338203)
(0 10.5467940250423 10.5467923646859)
(0 1.16045047200023 -4.69016763518897)
(0 0.382686072699104 -1.91655677507872)
(0 0.382686072699104 -1.91655677507872)
(0 1.16045047200024 -4.69016763518898)
(0 0.381060521569664 -0.38103950851731)
(0 -0 -2.65881296454916e-16)
(0 -4.03501785194992e-16 1.23190942129844e-16)
(0 0.381060521569666 -0.381039508517307)
(0 0.381060521569666 0.381039508517307)
(0 4.03501785194992e-16 -1.18192084661724e-16)
(0 -4.03501785194992e-16 3.24234310102201e-16)
(0 0.381060521569664 0.38103950851731)
(0 1.16045047200024 4.69016763518897)
(0 0.382686072699103 1.91655677507871)
(0 0.382686072699103 1.91655677507871)
(0 1.16045047200023 4.69016763518897)
(0 -1.16045047200023 -4.69016763518898)
(0 -0.382686072699103 -1.91655677507872)
(0 -0.382686072699103 -1.91655677507872)
(0 -1.16045047200024 -4.69016763518898)
(0 -0.381060521569664 -0.38103950851731)
(0 -2.01750892597496e-16 5.0437723149374e-17)
(0 2.01750892597496e-16 -2.77407477321557e-16)
(0 -0.381060521569666 -0.381039508517307)
(0 -0.381060521569666 0.381039508517307)
(0 2.01750892597496e-16 -2.5218861574687e-17)
(0 -0 4.79158369919053e-16)
(0 -0.381060521569664 0.381039508517309)
(0 -1.16045047200024 4.69016763518898)
(0 -0.382686072699104 1.91655677507871)
(0 -0.382686072699103 1.91655677507871)
(0 -1.16045047200023 4.69016763518898)
(0 -10.5467940250423 -10.5467923646859)
(0 -4.72087662946996 -4.72087553382031)
(0 -4.72087662946996 -4.72087553382031)
(0 -10.5467940250423 -10.5467923646859)
(0 -4.71052354874368 -1.16338682317528)
(0 -1.92473799368774 -0.384319688172935)
(0 -1.92473799368774 -0.384319688172934)
(0 -4.71052354874368 -1.16338682317527)
(0 -4.71052354874367 1.16338682317527)
(0 -1.92473799368774 0.384319688172935)
(0 -1.92473799368774 0.384319688172934)
(0 -4.71052354874368 1.16338682317527)
(0 -10.5467940250423 10.5467923646859)
(0 -4.72087662946995 4.72087553382031)
(0 -4.72087662946995 4.7208755338203)
(0 -10.5467940250423 10.5467923646859)
)
;

boundaryField
{
    numericalBoundary
    {
        type            calculated;
        value           nonuniform List<vector> 
96
(
(0 8.9960879576513 -8.99608629729487)
(0 5.89977949985567 -1.53510180388172)
(0 5.89977949985568 1.53510180388172)
(0 8.9960879576513 8.99608629729487)
(0 1.53383636635587 -5.88119741623858)
(0 0.946746025782136 -0.946693818789599)
(0 0.94674602578214 0.946693818789591)
(0 1.53383636635588 5.8811974162386)
(0 -1.53383636635587 -5.88119741623859)
(0 -0.946746025782135 -0.946693818789599)
(0 -0.946746025782141 0.946693818789593)
(0 -1.53383636635588 5.8811974162386)
(0 -8.99608795765131 -8.99608629729487)
(0 -5.89977949985568 -1.53510180388173)
(0 -5.89977949985566 1.53510180388172)
(0 -8.99608795765132 8.99608629729489)
(0 8.99608795765132 -8.99608629729489)
(0 5.89977949985567 -1.53510180388172)
(0 5.89977949985567 1.53510180388172)
(0 8.99608795765131 8.99608629729488)
(0 1.53383636635588 -5.8811974162386)
(0 0.946746025782141 -0.946693818789591)
(0 0.946746025782136 0.9466938187896)
(0 1.53383636635587 5.88119741623858)
(0 -1.53383636635588 -5.8811974162386)
(0 -0.94674602578214 -0.946693818789592)
(0 -0.946746025782135 0.946693818789597)
(0 -1.53383636635587 5.88119741623859)
(0 -8.99608795765132 -8.99608629729489)
(0 -5.89977949985567 -1.53510180388172)
(0 -5.89977949985566 1.53510180388172)
(0 -8.99608795765131 8.99608629729489)
(0 9.00387755740845 -8.20694238929459)
(0 1.53511530539154 -6.52360784233271)
(0 -1.53511530539155 -6.52360784233274)
(0 -9.00387755740844 -8.20694238929457)
(0 5.91754124322338 -6.55211641575943)
(0 0.949583014344039 -4.75567283336099)
(0 -0.949583014344039 -4.755672833361)
(0 -5.91754124322338 -6.55211641575943)
(0 5.91754124322339 -6.55211641575944)
(0 0.949583014344038 -4.75567283336099)
(0 -0.949583014344038 -4.75567283336099)
(0 -5.91754124322339 -6.55211641575944)
(0 9.00387755740845 -8.20694238929459)
(0 1.53511530539155 -6.52360784233273)
(0 -1.53511530539155 -6.52360784233272)
(0 -9.00387755740845 -8.20694238929459)
(0 9.00387755740843 8.20694238929458)
(0 1.53511530539155 6.52360784233273)
(0 -1.53511530539155 6.52360784233274)
(0 -9.00387755740844 8.20694238929457)
(0 5.91754124322338 6.55211641575942)
(0 0.949583014344039 4.75567283336099)
(0 -0.949583014344039 4.75567283336099)
(0 -5.91754124322339 6.55211641575944)
(0 5.91754124322338 6.55211641575943)
(0 0.949583014344038 4.75567283336099)
(0 -0.949583014344039 4.75567283336099)
(0 -5.91754124322338 6.55211641575942)
(0 9.00387755740846 8.2069423892946)
(0 1.53511530539154 6.52360784233271)
(0 -1.53511530539154 6.52360784233273)
(0 -9.00387755740844 8.20694238929457)
(0 8.21879772907715 -9.01169302036794)
(0 6.55531735199584 -1.54037174142378)
(0 6.55531735199584 1.54037174142378)
(0 8.21879772907716 9.01169302036794)
(0 6.55841280996847 -5.92165329578163)
(0 4.76995266511238 -0.952434423213785)
(0 4.76995266511238 0.952434423213784)
(0 6.55841280996846 5.92165329578162)
(0 6.55841280996847 -5.92165329578163)
(0 4.76995266511238 -0.952434423213786)
(0 4.76995266511239 0.952434423213788)
(0 6.55841280996845 5.92165329578161)
(0 8.21879772907713 -9.01169302036794)
(0 6.55531735199582 -1.54037174142378)
(0 6.55531735199584 1.54037174142378)
(0 8.21879772907715 9.01169302036795)
(0 -8.21879772907713 -9.01169302036793)
(0 -6.55531735199584 -1.54037174142379)
(0 -6.55531735199583 1.54037174142379)
(0 -8.21879772907714 9.01169302036794)
(0 -6.55841280996846 -5.92165329578163)
(0 -4.76995266511238 -0.952434423213791)
(0 -4.76995266511238 0.952434423213791)
(0 -6.55841280996846 5.92165329578162)
(0 -6.55841280996847 -5.92165329578163)
(0 -4.76995266511238 -0.952434423213787)
(0 -4.76995266511238 0.952434423213786)
(0 -6.55841280996846 5.92165329578162)
(0 -8.21879772907715 -9.01169302036795)
(0 -6.55531735199584 -1.54037174142378)
(0 -6.55531735199583 1.54037174142378)
(0 -8.21879772907715 9.01169302036795)
)
;
    }
}


// ************************************************************************* //
